<?xml version="1.0"?>
<VTKFile type="UnstructuredGrid"  version="0.1"  >
<UnstructuredGrid>
<Piece  NumberOfPoints="8321" NumberOfCells="16384">
<Points>
<DataArray  type="Float32"  NumberOfComponents="3"  format="ascii">-1 0 0  -0.999874 -0.015871 0  -0.99948 -0.0322413 0  -0.998793 -0.049121 0  -0.997785 -0.066519 0  -0.996428 -0.0844431 0  -0.994692 -0.102899 0  -0.992543 -0.121891 0  -0.989949 -0.141421 0  -0.986875 -0.161489 0  -0.983282 -0.182089 0  -0.979134 -0.203216 0  -0.974391 -0.22486 0  -0.969015 -0.247004 0  -0.962964 -0.26963 0  -0.9562 -0.292714 0  -0.948683 -0.316228 0  -0.940376 -0.340136 0  -0.931243 -0.364399 0  -0.92125 -0.388972 0  -0.910366 -0.413803 0  -0.898568 -0.438835 0  -0.885832 -0.464007 0  -0.872143 -0.489251 0  -0.857493 -0.514496 0  -0.841879 -0.539666 0  -0.825307 -0.564684 0  -0.807791 -0.589469 0  -0.789352 -0.613941 0  -0.770022 -0.638018 0  -0.749838 -0.661622 0  -0.728848 -0.684675 0  -0.707107 -0.707107 0  -0.684675 -0.728848 0  -0.661622 -0.749838 0  -0.638018 -0.770022 0  -0.613941 -0.789352 0  -0.589469 -0.807791 0  -0.564684 -0.825307 0  -0.539666 -0.841879 0  -0.514496 -0.857493 0  -0.489251 -0.872143 0  -0.464007 -0.885832 0  -0.438835 -0.898568 0  -0.413803 -0.910366 0  -0.388972 -0.92125 0  -0.364399 -0.931243 0  -0.340136 -0.940376 0  -0.316228 -0.948683 0  -0.292714 -0.9562 0  -0.26963 -0.962964 0  -0.247004 -0.969015 0  -0.22486 -0.974391 0  -0.203216 -0.979134 0  -0.182089 -0.983282 0  -0.161489 -0.986875 0  -0.141421 -0.989949 0  -0.121891 -0.992543 0  -0.102899 -0.994692 0  -0.0844431 -0.996428 0  -0.066519 -0.997785 0  -0.049121 -0.998793 0  -0.0322413 -0.99948 0  -0.015871 -0.999874 0  0 -1 0  -0.999874 0.015871 0  -0.96875 0 0  -0.96862 -0.015879 0  -0.968212 -0.0322737 0  -0.9675 -0.0491949 0  -0.966454 -0.066652 0  -0.965044 -0.084653 0  -0.963237 -0.103204 0  -0.960998 -0.122309 0  -0.958291 -0.141969 0  -0.955078 -0.162183 0  -0.951319 -0.182946 0  -0.946974 -0.204249 0  -0.942 -0.22608 0  -0.936357 -0.248421 0  -0.93 -0.27125 0  -0.922889 -0.294539 0  -0.914981 -0.318254 0  -0.906239 -0.342357 0  -0.896624 -0.366801 0  -0.886103 -0.391534 0  -0.874646 -0.416498 0  -0.86223 -0.44163 0  -0.848834 -0.466859 0  -0.834448 -0.49211 0  -0.819067 -0.517306 0  -0.802696 -0.542362 0  -0.785346 -0.567194 0  -0.767039 -0.591716 0  -0.747807 -0.615841 0  -0.727691 -0.639486 0  -0.706739 -0.662568 0  -0.68501 -0.68501 0  -0.662568 -0.706739 0  -0.639486 -0.727691 0  -0.615841 -0.747807 0  -0.591716 -0.767039 0  -0.567194 -0.785346 0  -0.542362 -0.802696 0  -0.517306 -0.819067 0  -0.49211 -0.834448 0  -0.466859 -0.848834 0  -0.44163 -0.86223 0  -0.416498 -0.874646 0  -0.391534 -0.886103 0  -0.366801 -0.896624 0  -0.342357 -0.906239 0  -0.318254 -0.914981 0  -0.294539 -0.922889 0  -0.27125 -0.93 0  -0.248421 -0.936357 0  -0.22608 -0.942 0  -0.204249 -0.946974 0  -0.182946 -0.951319 0  -0.162183 -0.955078 0  -0.141969 -0.958291 0  -0.122309 -0.960998 0  -0.103204 -0.963237 0  -0.084653 -0.965044 0  -0.066652 -0.966454 0  -0.0491949 -0.9675 0  -0.0322737 -0.968212 0  -0.015879 -0.96862 0  0 -0.96875 0  0.015871 -0.999874 0  -0.99948 0.0322413 0  -0.96862 0.015879 0  -0.9375 0 0  -0.937365 -0.0158875 0  -0.936943 -0.0323084 0  -0.936204 -0.0492739 0  -0.935118 -0.0667941 0  -0.93365 -0.0848773 0  -0.931766 -0.10353 0  -0.929429 -0.122755 0  -0.926598 -0.142554 0  -0.923235 -0.162924 0  -0.919294 -0.183859 0  -0.914734 -0.205348 0  -0.909509 -0.227377 0  -0.903573 -0.249924 0  -0.896882 -0.272964 0  -0.889391 -0.296464 0  -0.881056 -0.320384 0  -0.871838 -0.34468 0  -0.861698 -0.369299 0  -0.850604 -0.394182 0  -0.838525 -0.419263 0  -0.825442 -0.444469 0  -0.811337 -0.469722 0  -0.796205 -0.494938 0  -0.780047 -0.520031 0  -0.762875 -0.544911 0  -0.74471 -0.569484 0  -0.725585 -0.59366 0  -0.705541 -0.617348 0  -0.684629 -0.64046 0  -0.662913 -0.662913 0  -0.64046 -0.684629 0  -0.617348 -0.705541 0  -0.59366 -0.725585 0  -0.569484 -0.74471 0  -0.544911 -0.762875 0  -0.520031 -0.780047 0  -0.494938 -0.796205 0  -0.469722 -0.811337 0  -0.444469 -0.825442 0  -0.419263 -0.838525 0  -0.394182 -0.850604 0  -0.369299 -0.861698 0  -0.34468 -0.871838 0  -0.320384 -0.881056 0  -0.296464 -0.889391 0  -0.272964 -0.896882 0  -0.249924 -0.903573 0  -0.227377 -0.909509 0  -0.205348 -0.914734 0  -0.183859 -0.919294 0  -0.162924 -0.923235 0  -0.142554 -0.926598 0  -0.122755 -0.929429 0  -0.10353 -0.931766 0  -0.0848773 -0.93365 0  -0.0667941 -0.935118 0  -0.0492739 -0.936204 0  -0.0323084 -0.936943 0  -0.0158875 -0.937365 0  0 -0.9375 0  0.015879 -0.96862 0  0.0322413 -0.99948 0  -0.998793 0.049121 0  -0.968212 0.0322737 0  -0.937365 0.0158875 0  -0.90625 0 0  -0.906111 -0.0158967 0  -0.905673 -0.0323454 0  -0.904905 -0.0493584 0  -0.903774 -0.0669462 0  -0.902244 -0.0851174 0  -0.900277 -0.103878 0  -0.897832 -0.123232 0  -0.894868 -0.143179 0  -0.89134 -0.163715 0  -0.887201 -0.184834 0  -0.882405 -0.20652 0  -0.876903 -0.228757 0  -0.870647 -0.25152 0  -0.863589 -0.274778 0  -0.855681 -0.298494 0  -0.84688 -0.322621 0  -0.837141 -0.347107 0  -0.826429 -0.371893 0  -0.81471 -0.39691 0  -0.801957 -0.422083 0  -0.788153 -0.44733 0  -0.773287 -0.472564 0  -0.757358 -0.497692 0  -0.740377 -0.522619 0  -0.722365 -0.547246 0  -0.703353 -0.571475 0  -0.683386 -0.595208 0  -0.662519 -0.618351 0  -0.640816 -0.640816 0  -0.618351 -0.662519 0  -0.595208 -0.683386 0  -0.571475 -0.703353 0  -0.547246 -0.722365 0  -0.522619 -0.740377 0  -0.497692 -0.757358 0  -0.472564 -0.773287 0  -0.44733 -0.788153 0  -0.422083 -0.801957 0  -0.39691 -0.81471 0  -0.371893 -0.826429 0  -0.347107 -0.837141 0  -0.322621 -0.84688 0  -0.298494 -0.855681 0  -0.274778 -0.863589 0  -0.25152 -0.870647 0  -0.228757 -0.876903 0  -0.20652 -0.882405 0  -0.184834 -0.887201 0  -0.163715 -0.89134 0  -0.143179 -0.894868 0  -0.123232 -0.897832 0  -0.103878 -0.900277 0  -0.0851174 -0.902244 0  -0.0669462 -0.903774 0  -0.0493584 -0.904905 0  -0.0323454 -0.905673 0  -0.0158967 -0.906111 0  0 -0.90625 0  0.0158875 -0.937365 0  0.0322737 -0.968212 0  0.049121 -0.998793 0  -0.997785 0.066519 0  -0.9675 0.0491949 0  -0.936943 0.0323084 0  -0.906111 0.0158967 0  -0.875 0 0  -0.874855 -0.0159065 0  -0.8744 -0.0323852 0  -0.873602 -0.0494491 0  -0.872423 -0.0671094 0  -0.870825 -0.085375 0  -0.868767 -0.104252 0  -0.866206 -0.123744 0  -0.863095 -0.143849 0  -0.859386 -0.164563 0  -0.855029 -0.185876 0  -0.849974 -0.207771 0  -0.844168 -0.230228 0  -0.83756 -0.253216 0  -0.830098 -0.276699 0  -0.821732 -0.300634 0  -0.812417 -0.324967 0  -0.802109 -0.349637 0  -0.790771 -0.374576 0  -0.778371 -0.399704 0  -0.764888 -0.424938 0  -0.750306 -0.450184 0  -0.734624 -0.475345 0  -0.717848 -0.500319 0  -0.7 -0.525 0  -0.681111 -0.549283 0  -0.661228 -0.573064 0  -0.640407 -0.596241 0  -0.618718 -0.618718 0  -0.596241 -0.640407 0  -0.573064 -0.661228 0  -0.549283 -0.681111 0  -0.525 -0.7 0  -0.500319 -0.717848 0  -0.475345 -0.734624 0  -0.450184 -0.750306 0  -0.424938 -0.764888 0  -0.399704 -0.778371 0  -0.374576 -0.790771 0  -0.349637 -0.802109 0  -0.324967 -0.812417 0  -0.300634 -0.821732 0  -0.276699 -0.830098 0  -0.253216 -0.83756 0  -0.230228 -0.844168 0  -0.207771 -0.849974 0  -0.185876 -0.855029 0  -0.164563 -0.859386 0  -0.143849 -0.863095 0  -0.123744 -0.866206 0  -0.104252 -0.868767 0  -0.085375 -0.870825 0  -0.0671094 -0.872423 0  -0.0494491 -0.873602 0  -0.0323852 -0.8744 0  -0.0159065 -0.874855 0  0 -0.875 0  0.0158967 -0.906111 0  0.0323084 -0.936943 0  0.0491949 -0.9675 0  0.066519 -0.997785 0  -0.996428 0.0844431 0  -0.966454 0.066652 0  -0.936204 0.0492739 0  -0.905673 0.0323454 0  -0.874855 0.0159065 0  -0.84375 0 0  -0.8436 -0.015917 0  -0.843127 -0.0324279 0  -0.842294 -0.0495467 0  -0.841063 -0.067285 0  -0.839391 -0.0856522 0  -0.837234 -0.104654 0  -0.834545 -0.124294 0  -0.831272 -0.144569 0  -0.827365 -0.165473 0  -0.822768 -0.186993 0  -0.817427 -0.209109 0  -0.811286 -0.231796 0  -0.804288 -0.255018 0  -0.79638 -0.278733 0  -0.78751 -0.302889 0  -0.77763 -0.327423 0  -0.766696 -0.352266 0  -0.754673 -0.377336 0  -0.741533 -0.402546 0  -0.727257 -0.427798 0  -0.711839 -0.452989 0  -0.695285 -0.478009 0  -0.677614 -0.502746 0  -0.658858 -0.527086 0  -0.639065 -0.550918 0  -0.618295 -0.574131 0  -0.596621 -0.596621 0  -0.574131 -0.618295 0  -0.550918 -0.639065 0  -0.527086 -0.658858 0  -0.502746 -0.677614 0  -0.478009 -0.695285 0  -0.452989 -0.711839 0  -0.427798 -0.727257 0  -0.402546 -0.741533 0  -0.377336 -0.754673 0  -0.352266 -0.766696 0  -0.327423 -0.77763 0  -0.302889 -0.78751 0  -0.278733 -0.79638 0  -0.255018 -0.804288 0  -0.231796 -0.811286 0  -0.209109 -0.817427 0  -0.186993 -0.822768 0  -0.165473 -0.827365 0  -0.144569 -0.831272 0  -0.124294 -0.834545 0  -0.104654 -0.837234 0  -0.0856522 -0.839391 0  -0.067285 -0.841063 0  -0.0495467 -0.842294 0  -0.0324279 -0.843127 0  -0.015917 -0.8436 0  0 -0.84375 0  0.0159065 -0.874855 0  0.0323454 -0.905673 0  0.0492739 -0.936204 0  0.066652 -0.966454 0  0.0844431 -0.996428 0  -0.994692 0.102899 0  -0.965044 0.084653 0  -0.935118 0.0667941 0  -0.904905 0.0493584 0  -0.8744 0.0323852 0  -0.8436 0.015917 0  -0.8125 0 0  -0.812344 -0.0159283 0  -0.811851 -0.032474 0  -0.810981 -0.0496519 0  -0.809693 -0.0674745 0  -0.807941 -0.0859512 0  -0.805675 -0.105088 0  -0.802845 -0.124887 0  -0.799394 -0.145344 0  -0.795267 -0.166451 0  -0.790405 -0.188192 0  -0.784747 -0.210542 0  -0.778234 -0.23347 0  -0.770805 -0.256935 0  -0.762404 -0.280886 0  -0.752976 -0.30526 0  -0.742472 -0.329988 0  -0.73085 -0.354984 0  -0.718078 -0.380159 0  -0.704131 -0.405409 0  -0.688999 -0.430624 0  -0.672684 -0.455689 0  -0.655204 -0.480483 0  -0.636592 -0.504883 0  -0.616896 -0.528768 0  -0.596181 -0.552019 0  -0.574524 -0.574524 0  -0.552019 -0.596181 0  -0.528768 -0.616896 0  -0.504883 -0.636592 0  -0.480483 -0.655204 0  -0.455689 -0.672684 0  -0.430624 -0.688999 0  -0.405409 -0.704131 0  -0.380159 -0.718078 0  -0.354984 -0.73085 0  -0.329988 -0.742472 0  -0.30526 -0.752976 0  -0.280886 -0.7
[...]
<PointData  Scalars="u"> 
<DataArray  type="Float32"  Name="u"  format="ascii">0.000000e+000  0.000000e+000  0.000000e+000  0.000000e+000  0.000000e+000  0.000000e+000  0.000000e+000  0.000000e+000  0.000000e+000  0.000000e+000  0.000000e+000  0.000000e+000  0.000000e+000  0.000000e+000  0.000000e+000  0.000000e+000  0.000000e+000  0.000000e+000  0.000000e+000  0.000000e+000  0.000000e+000  0.000000e+000  0.000000e+000  0.000000e+000  0.000000e+000  0.000000e+000  0.000000e+000  0.000000e+000  0.000000e+000  0.000000e+000  0.000000e+000  0.000000e+000  0.000000e+000  0.000000e+000  0.000000e+000  0.000000e+000  0.000000e+000  0.000000e+000  0.000000e+000  0.000000e+000  0.000000e+000  0.000000e+000  0.000000e+000  0.000000e+000  0.000000e+000  0.000000e+000  0.000000e+000  0.000000e+000  0.000000e+000  0.000000e+000  0.000000e+000  0.000000e+000  0.000000e+000  0.000000e+000  0.000000e+000  0.000000e+000  0.000000e+000  0.000000e+000  0.000000e+000  0.000000e+000  0.000000e+000  0.000000e+000  0.000000e+000  0.000000e+000  0.000000e+000  0.000000e+000  0.000000e+000  0.000000e+000  0.000000e+000  0.000000e+000  0.000000e+000  0.000000e+000  0.000000e+000  0.000000e+000  0.000000e+000  0.000000e+000  0.000000e+000  0.000000e+000  0.000000e+000  0.000000e+000  0.000000e+000  0.000000e+000  0.000000e+000  0.000000e+000  0.000000e+000  0.000000e+000  0.000000e+000  0.000000e+000  0.000000e+000  0.000000e+000  0.000000e+000  0.000000e+000  0.000000e+000  0.000000e+000  0.000000e+000  0.000000e+000  0.000000e+000  0.000000e+000  0.000000e+000  0.000000e+000  0.000000e+000  0.000000e+000  0.000000e+000  0.000000e+000  0.000000e+000  0.000000e+000  0.000000e+000  0.000000e+000  0.000000e+000  0.000000e+000  0.000000e+000  0.000000e+000  0.000000e+000  0.000000e+000  0.000000e+000  0.000000e+000  0.000000e+000  0.000000e+000  0.000000e+000  0.000000e+000  0.000000e+000  0.000000e+000  0.000000e+000  0.000000e+000  0.000000e+000  0.000000e+000  0.000000e+000  0.000000e+000  0.000000e+000  0.000000e+000  0.000000e+000  0.000000e+000  0.000000e+000  0.000000e+000  0.000000e+000  0.000000e+000  0.000000e+000  0.000000e+000  0.000000e+000  0.000000e+000  0.000000e+000  0.000000e+000  0.000000e+000  0.000000e+000  0.000000e+000  0.000000e+000  0.000000e+000  0.000000e+000  0.000000e+000  0.000000e+000  0.000000e+000  0.000000e+000  0.000000e+000  0.000000e+000  0.000000e+000  0.000000e+000  0.000000e+000  0.000000e+000  0.000000e+000  0.000000e+000  0.000000e+000  0.000000e+000  0.000000e+000  0.000000e+000  0.000000e+000  0.000000e+000  0.000000e+000  0.000000e+000  0.000000e+000  0.000000e+000  0.000000e+000  0.000000e+000  0.000000e+000  0.000000e+000  0.000000e+000  0.000000e+000  0.000000e+000  0.000000e+000  0.000000e+000  0.000000e+000  0.000000e+000  0.000000e+000  0.000000e+000  0.000000e+000  0.000000e+000  0.000000e+000  0.000000e+000  0.000000e+000  0.000000e+000  0.000000e+000  0.000000e+000  0.000000e+000  0.000000e+000  0.000000e+000  0.000000e+000  0.000000e+000  0.000000e+000  0.000000e+000  0.000000e+000  0.000000e+000  0.000000e+000  0.000000e+000  0.000000e+000  0.000000e+000  0.000000e+000  0.000000e+000  0.000000e+000  0.000000e+000  0.000000e+000  0.000000e+000  0.000000e+000  0.000000e+000  0.000000e+000  0.000000e+000  0.000000e+000  0.000000e+000  0.000000e+000  0.000000e+000  0.000000e+000  0.000000e+000  0.000000e+000  0.000000e+000  0.000000e+000  0.000000e+000  0.000000e+000  0.000000e+000  0.000000e+000  0.000000e+000  0.000000e+000  0.000000e+000  0.000000e+000  0.000000e+000  0.000000e+000  0.000000e+000  0.000000e+000  0.000000e+000  0.000000e+000  0.000000e+000  0.000000e+000  0.000000e+000  0.000000e+000  0.000000e+000  0.000000e+000  0.000000e+000  0.000000e+000  0.000000e+000  0.000000e+000  0.000000e+000  0.000000e+000  0.000000e+000  0.000000e+000  0.000000e+000  0.000000e+000  0.000000e+000  0.000000e+000  0.000000e+000  0.000000e+000  0.000000e+000  0.000000e+000  0.000000e+000  0.000000e+000  0.000000e+000  0.000000e+000  0.000000e+000  0.000000e+000  0.000000e+000  0.000000e+000  0.000000e+000  0.000000e+000  0.000000e+000  0.000000e+000  0.000000e+000  0.000000e+000  0.000000e+000  0.000000e+000  0.000000e+000  0.000000e+000  0.000000e+000  0.000000e+000  0.000000e+000  0.000000e+000  0.000000e+000  0.000000e+000  0.000000e+000  0.000000e+000  0.000000e+000  0.000000e+000  0.000000e+000  0.000000e+000  0.000000e+000  0.000000e+000  0.000000e+000  0.000000e+000  0.000000e+000  0.000000e+000  0.000000e+000  0.000000e+000  0.000000e+000  0.000000e+000  0.000000e+000  0.000000e+000  0.000000e+000  0.000000e+000  0.000000e+000  0.000000e+000  0.000000e+000  0.000000e+000  0.000000e+000  0.000000e+000  0.000000e+000  0.000000e+000  0.000000e+000  0.000000e+000  0.000000e+000  0.000000e+000  0.000000e+000  0.000000e+000  0.000000e+000  0.000000e+000  0.000000e+000  0.000000e+000  0.000000e+000  0.000000e+000  0.000000e+000  0.000000e+000  0.000000e+000  0.000000e+000  0.000000e+000  0.000000e+000  0.000000e+000  0.000000e+000  0.000000e+000  0.000000e+000  0.000000e+000  0.000000e+000  0.000000e+000  0.000000e+000  0.000000e+000  0.000000e+000  0.000000e+000  0.000000e+000  0.000000e+000  0.000000e+000  0.000000e+000  0.000000e+000  0.000000e+000  0.000000e+000  0.000000e+000  0.000000e+000  0.000000e+000  0.000000e+000  0.000000e+000  0.000000e+000  0.000000e+000  0.000000e+000  0.000000e+000  0.000000e+000  0.000000e+000  0.000000e+000  0.000000e+000  0.000000e+000  0.000000e+000  0.000000e+000  0.000000e+000  0.000000e+000  0.000000e+000  0.000000e+000  0.000000e+000  0.000000e+000  0.000000e+000  0.000000e+000  0.000000e+000  0.000000e+000  0.000000e+000  0.000000e+000  0.000000e+000  0.000000e+000  0.000000e+000  0.000000e+000  0.000000e+000  0.000000e+000  0.000000e+000  0.000000e+000  0.000000e+000  0.000000e+000  0.000000e+000  0.000000e+000  0.000000e+000  0.000000e+000  0.000000e+000  0.000000e+000  0.000000e+000  0.000000e+000  0.000000e+000  0.000000e+000  0.000000e+000  0.000000e+000  0.000000e+000  0.000000e+000  0.000000e+000  0.000000e+000  0.000000e+000  0.000000e+000  0.000000e+000  0.000000e+000  0.000000e+000  0.000000e+000  0.000000e+000  0.000000e+000  0.000000e+000  0.000000e+000  0.000000e+000  0.000000e+000  0.000000e+000  0.000000e+000  0.000000e+000  0.000000e+000  0.000000e+000  0.000000e+000  0.000000e+000  0.000000e+000  0.000000e+000  0.000000e+000  0.000000e+000  0.000000e+000  0.000000e+000  0.000000e+000  0.000000e+000  0.000000e+000  0.000000e+000  0.000000e+000  0.000000e+000  0.000000e+000  0.000000e+000  0.000000e+000  0.000000e+000  0.000000e+000  0.000000e+000  0.000000e+000  0.000000e+000  0.000000e+000  0.000000e+000  0.000000e+000  0.000000e+000  0.000000e+000  0.000000e+000  0.000000e+000  0.000000e+000  0.000000e+000  0.000000e+000  0.000000e+000  0.000000e+000  0.000000e+000  0.000000e+000  0.000000e+000  0.000000e+000  0.000000e+000  0.000000e+000  0.000000e+000  0.000000e+000  0.000000e+000  0.000000e+000  0.000000e+000  0.000000e+000  0.000000e+000  0.000000e+000  0.000000e+000  0.000000e+000  0.000000e+000  0.000000e+000  0.000000e+000  0.000000e+000  0.000000e+000  0.000000e+000  0.000000e+000  0.000000e+000  0.000000e+000  0.000000e+000  0.000000e+000  0.000000e+000  0.000000e+000  0.000000e+000  0.000000e+000  0.000000e+000  0.000000e+000  0.000000e+000  0.000000e+000  0.000000e+000  0.000000e+000  0.000000e+000  0.000000e+000  0.000000e+000  0.000000e+000  0.000000e+000  0.000000e+000  0.000000e+000  0.000000e+000  0.000000e+000  0.000000e+000  0.000000e+000  0.000000e+000  0.000000e+000  0.000000e+000  0.000000e+000  0.000000e+000  0.000000e+000  0.000000e+000  0.000000e+000  0.000000e+000  0.000000e+000  0.000000e+000  0.000000e+000  0.000000e+000  0.000000e+000  0.000000e+000  0.000000e+000  0.000000e+000  0.000000e+000  0.000000e+000  0.000000e+000  0.000000e+000  0.000000e+000  0.000000e+000  0.000000e+000  0.000000e+000  0.000000e+000  0.000000e+000  0.000000e+000  0.000000e+000  0.000000e+000  0.000000e+000  0.000000e+000  0.000000e+000  0.000000e+000  0.000000e+000  0.000000e+000  0.000000e+000  0.000000e+000  0.000000e+000  0.000000e+000  0.000000e+000  0.000000e+000  0.000000e+000  0.000000e+000  0.000000e+000  0.000000e+000  0.000000e+000  0.000000e+000  0.000000e+000  0.000000e+000  0.000000e+000  0.000000e+000  0.000000e+000  0.000000e+000  0.000000e+000  0.000000e+000  0.000000e+000  0.000000e+000  0.000000e+000  0.000000e+000  0.000000e+000  0.000000e+000  0.000000e+000  0.000000e+000  0.000000e+000  0.000000e+000  0.000000e+000  0.000000e+000  0.000000e+000  0.000000e+000  0.000000e+000  0.000000e+000  0.000000e+000  0.000000e+000  0.000000e+000  0.000000e+000  0.000000e+000  0.000000e+000  0.000000e+000  0.000000e+000  0.000000e+000  0.000000e+000  0.000000e+000  0.000000e+000  0.000000e+000  0.000000e+000  0.000000e+000  0.000000e+000  0.000000e+000  0.000000e+000  0.000000e+000  0.000000e+000  0.000000e+000  0.000000e+000  0.000000e+000  0.000000e+000  0.000000e+000  0.000000e+000  0.000000e+000  0.000000e+000  0.000000e+000  0.000000e+000  0.000000e+000  0.000000e+000  0.000000e+000  0.000000e+000  0.000000e+000  0.000000e+000  0.000000e+000  0.000000e+000  0.000000e+000  0.000000e+000  0.000000e+000  0.000000e+000  0.000000e+000  0.000000e+000  0.000000e+000  0.000000e+000  0.000000e+000  0.000000e+000  0.000000e+000  0.000000e+000  0.000000e+000  0.000000e+000  0.000000e+000  0.000000e+000  0.000000e+000  0.000000e+000  0.000000e+000  0.000000e+000  0.000000e+000  0.000000e+000  0.000000e+000  0.000000e+000  0.000000e+000  0.000000e+000  0.000000e+000  0.000000e+000  0.000000e+000  0.000000e+000  0.000000e+000  0.000000e+000  0.000000e+000  0.000000e+000  0.000000e+000  0.000000e+000  0.000000e+000  0.000000e+000  0.000000e+000  0.000000e+000  0.000000e+000  0.000000e+000  0.000000e+000  0.000000e+000  0.000000e+000  0.000000e+000  0.000000e+000  0.000000e+000  0.000000e+000  0.000000e+000  0.000000e+000  0.000000e+000  0.000000e+000  0.000000e+000  0.000000e+000  0.000000e+000  0.000000e+000  0.000000e+000  0.000000e+000  0.000000e+000  0.000000e+000  0.000000e+000  0.000000e+000  0.000000e+000  0.000000e+000  0.000000e+000  0.000000e+000  0.000000e+000  0.000000e+000  0.000000e+000  0.000000e+000  0.000000e+000  0.000000e+000  0.000000e+000  0.000000e+000  0.000000e+000  0.000000e+000  0.000000e+000  0.000000e+000  0.000000e+000  0.000000e+000  0.000000e+000  0.000000e+000  0.000000e+000  0.000000e+000  0.000000e+000  0.000000e+000  0.000000e+000  0.000000e+000  0.000000e+000  0.000000e+000  0.000000e+000  0.000000e+000  0.000000e+000  0.000000e+000  0.000000e+000  0.000000e+000  0.000000e+000  0.000000e+000  0.000000e+000  0.000000e+000  0.000000e+000  0.000000e+000  0.000000e+000  0.000000e+000  0.000000e+000  0.000000e+000  0.000000e+000  0.000000e+000  0.000000e+000  0.000000e+000  0.000000e+000  0.000000e+000  0.000000e+000  0.000000e+000  0.000000e+000  0.000000e+000  0.000000e+000  0.000000e+000  0.000000e+000  0.000000e+000  0.000000e+000  0.000000e+000  0.000000e+000  0.000000e+000  0.000000e+000  0.000000e+000  0.000000e+000  0.000000e+000  0.000000e+000  0.000000e+000  0.000000e+000  0.000000e+000  0.000000e+000  0.000000e+000  0.000000e+000  0.000000e+000  0.000000e+000  0.000000e+000  0.000000e+000  0.000000e+000  0.000000e+000  0.000000e+000  0.000000e+000  0.000000e+000  0.000000e+000  0.000000e+000  0.000000e+000  0.000000e+000  0.000000e+000  0.000000e+000  0.000000e+000  0.000000e+000  0.000000e+000  0.000000e+000  0.000000e+000  0.000000e+000  0.000000e+000  0.000000e+000  0.000000e+000  0.000000e+000  0.000000e+000  0.000000e+000  0.000000e+000  0.000000e+000  0.000000e+000  0.000000e+000  0.000000e+000  0.000000e+000  0.000000e+000  0.000000e+000  0.000000e+000  0.000000e+000  0.000000e+000  0.000000e+000  0.000000e+000  0.000000e+000  0.000000e+000  0.000000e+000  0.000000e+000  0.000000e+000  0.000000e+000  0.000000e+000  0.000000e+000  0.000000e+000  0.000000e+000  0.000000e+000  0.000000e+000  0.000000e+000  0.000000e+000  0.000000e+000  0.000000e+000  0.000000e+000  0.000000e+000  0.000000e+000  0.000000e+000  0.000000e+000  0.000000e+000  0.000000e+000  0.000000e+000  0.000000e+000  0.000000e+000  0.000000e+000  0.000000e+000  0.000000e+000  0.000000e+000  0.000000e+000  0.000000e+000  0.000000e+000  0.000000e+000  0.000000e+000  0.000000e+000  0.000000e+000  0.000000e+000  0.000000e+000  0.000000e+000  0.000000e+000  0.000000e+000  0.000000e+000  0.000000e+000  0.000000e+000  0.000000e+000  0.000000e+000  0.000000e+000  0.000000e+000  0.000000e+000  0.000000e+000  0.000000e+000  0.000000e+000  0.000000e+000  0.000000e+000  0.000000e+000  0.000000e+000  0.000000e+000  0.000000e+000  0.000000e+000  0.000000e+000  0.000000e+000  0.000000e+000  0.000000e+000  0.000000e+000  0.000000e+000  0.000000e+000  0.000000e+000  0.000000e+000  0.000000e+000  0.000000e+000  0.000000e+000  0.000000e+000  0.000000e+000  0.000000e+000  0.000000e+000  0.000000e+000  0.000000e+000  0.000000e+000  0.000000e+000  0.000000e+000  0.000000e+000  0.000000e+000  0.000000e+000  0.000000e+000  0.000000e+000  0.000000e+000  0.000000e+000  0.000000e+000  0.000000e+000  0.000000e+000  0.000000e+000  0.000000e+000  0.000000e+000  0.000000e+000  0.000000e+000  0.000000e+000  0.000000e+000  0.000000e+000  0.000000e+000  0.000000e+000  0.000000e+000  0.000000e+000  0.000000e+000  0.000000e+000  0.000000e+000  0.000000e+000  0.000000e+000  0.000000e+000  0.000000e+000  0.000000e+000  0.000000e+000  0.000000e+000  0.000000e+000  0.000000e+000  0.000000e+000  0.000000e+000  0.000000e+000  0.000000e+000  0.000000e+000  0.000000e+000  0.000000e+000  0.000000e+000  0.000000e+000  0.000000e+000  0.000000e+000  0.000000e+000  0.000000e+000  0.000000e+000  0.000000e+000  0.000000e+000  0.000000e+000  0.000000e+000  0.000000e+000  0.000000e+000  0.000000e+000  0.000000e+000  0.000000e+000  0.000000e+000  0.000000e+000  0.000000e+000  0.000000e+000  0.000000e+000  0.000000e+000  0.000000e+000  0.000000e+000  0.000000e+000  0.000000e+000  0.000000e+000  0.000000e+000  0.000000e+000  0.000000e+000  0.000000e+000  0.000000e+000  0.000000e+000  0.000000e+000  0.000000e+000  0.000000e+000  0.000000e+000  0.000000e+000  0.000000e+000  0.000000e+000  0.000000e+000  0.000000e+000  0.000000e+000  0.000000e+000  0.000000e+000  0.000000e+000  0.000000e+000  0.000000e+000  0.000000e+000  0.000000e+000  0.000000e+000  0.000000e+000  0.000000e+000  0.000000e+000  0.000000e+000  0.000000e+000  0.000000e+000  0.000000e+000  0.000000e+000  0.000000e+000  0.000000e+000  0.000000e+000  0.000000e+000  0.000000e+000  0.000000e+000  0.000000e+000  0.000000e+000  0.000000e+000  0.000000e+000  0.000000e+000  0.000000e+000  0.000000e+000  0.000000e+000  0.000000e+000  0.000000e+000  0.000000e+000  0.000000e+000  0.000000e+000  0.000000e+000  0.000000e+000  0.000000e+000  0.000000e+000  0.000000e+000  0.000000e+000  0.000000e+000  0.000000e+000  0.000000e+000  0.000000e+000  0.000000e+000  0.000000e+000  0.000000e+000  0.000000e+000  0.000000e+000  0.000000e+000  0.000000e+000  0.000000e+000  0.000000e+000  0.000000e+000  0.000000e+000  0.000000e+000  0.000000e+000  0.000000e+000  0.000000e+000  0.000000e+000  0.000000e+000  0.000000e+000  0.000000e+000  0.000000e+000  0.000000e+000  0.000000e+000  0.000000e+000  0.000000e+000  0.000000e+000  0.000000e+000  0.000000e+000  0.000000e+000  0.000000e+000  0.000000e+000  0.000000e+000  0.000000e+000  0.000000e+000  0.000000e+000  0.000000e+000  0.000000e+000  0.000000e+000  0.000000e+000  0.000000e+000  0.000000e+000  0.000000e+000  0.000000e+000  0.000000e+000  0.000000e+000  0.000000e+000  0.000000e+000  0.000000e+000  0.000000e+000  0.000000e+000  0.000000e+000  0.000000e+000  0.000000e+000  0.000000e+000  0.000000e+000  0.000000e+000  0.000000e+000  0.000000e+000  0.000000e+000  0.000000e+000  0.000000e+000  0.000000e+000  0.000000e+000  0.000000e+000  0.000000e+000  0.000000e+000  0.000000e+000  0.000000e+000  0.000000e+000  0.000000e+000  0.000000e+000  0.000000e+000  0.000000e+000  0.000000e+000  0.000000e+000  0.000000e+000  0.000000e+000  0.000000e+000  0.000000e+000  0.000000e+000  0.000000e+000  0.000000e+000  0.000000e+000  0.000000e+000  0.000000e+000  0.000000e+000  0.000000e+000  0.000000e+000  0.000000e+000  0.000000e+000  0.000000e+000  0.000000e+000  0.000000e+000  0.000000e+000  0.000000e+000  0.000000e+000  0.000000e+000  0.000000e+000  0.000000e+000  0.000000e+000  0.000000e+000  0.000000e+000  0.000000e+000  0.000000e+000  0.000000e+000  0.000000e+000  0.000000e+000  0.000000e+000  0.000000e+000  0.000000e+000  0.000000e+000  0.000000e+000  0.000000e+000  0.000000e+000  0.000000e+000  0.000000e+000  0.000000e+000  0.000000e+000  0.000000e+000  0.000000e+000  0.000000e+000  0.000000e+000  0.000000e+000  0.000000e+000  0.000000e+000  0.000000e+000  0.000000e+000  0.000000e+000  0.000000e+000  0.000000e+000  0.000000e+000  0.000000e+000  0.000000e+000  0.000000e+000  0.000000e+000  0.000000e+000  0.000000e+000  0.000000e+000  0.000000e+000  0.000000e+000  0.000000e+000  0.000000e+000  0.000000e+000  0.000000e+000  0.000000e+000  0.000000e+000  0.000000e+000  0.000000e+000  0.000000e+000  0.000000e+000  0.000000e+000  0.000000e+000  0.000000e+000  0.000000e+000  0.000000e+000  0.000000e+000  4.349398e-012  2.302393e-010  0.000000e+000  0.000000e+000  0.000000e+000  0.000000e+000  0.000000e+000  0.000000e+000  0.000000e+000  0.000000e+000  0.000000e+000  0.000000e+000  0.000000e+000  0.000000e+000  0.000000e+000  0.000000e+000  0.000000e+000  0.000000e+000  0.000000e+000  0.000000e+000  0.000000e+000  0.000000e+000  0.000000e+000  0.000000e+000  0.000000e+000  0.000000e+000  0.000000e+000  0.000000e+000  0.000000e+000  0.000000e+000  0.000000e+000  0.000000e+000  0.000000e+000  0.000000e+000  0.000000e+000  0.000000e+000  0.000000e+000  0.000000e+000  0.000000e+000  0.000000e+000  0.000000e+000  0.000000e+000  0.000000e+000  0.000000e+000  0.000000e+000  0.000000e+000  0.000000e+000  0.000000e+000  0.000000e+000  0.000000e+000  0.000000e+000  0.000000e+000  0.000000e+000  0.000000e+000  0.000000e+000  0.000000e+000  0.000000e+000  0.000000e+000  0.000000e+000  7.548158e-012  8.632730e-010  1.256917e-008  7.867482e-008  3.096676e-007  9.084546e-007  2.176107e-006  2.853911e-009  0.000000e+000  0.000000e+000  0.000000e+000  0.000000e+000  0.000000e+000  0.000000e+000  0.000000e+000  0.000000e+000  0.000000e+000  0.000000e+000  0.000000e+000  0.000000e+000  0.000000e+000  0.000000e+000  0.000000e+000  0.000000e+000  0.000000e+000  0.000000e+000  0.000000e+000  0.000000e+000  0.000000e+000  0.000000e+000  0.000000e+000  0.000000e+000  0.000000e+000  0.000000e+000  0.000000e+000  0.000000e+000  0.000000e+000  0.000000e+000  0.000000e+000  0.000000e+000  0.000000e+000  0.000000e+000  0.000000e+000  0.000000e+000  0.000000e+000  0.000000e+000  0.000000e+000  0.000000e+000  0.000000e+000  0.000000e+000  0.000000e+000  0.000000e+000  0.000000e+000  0.000000e+000  0.000000e+000  0.000000e+000  0.000000e+000  0.000000e+000  0.000000e+000  0.000000e+000  7.461879e-013  4.993401e-010  1.350392e-008  1.208638e-007  6.079916e-007  2.138224e-006  5.884812e-006  1.354840e-005  2.724206e-005  4.928056e-005  8.193683e-005  4.730675e-006  2.018420e-008  0.000000e+000  0.000000e+000  0.000000e+000  0.000000e+000  0.000000e+000  0.000000e+000  0.000000e+000  0.000000e+000  0.000000e+000  0.000000e+000  0.000000e+000  0.000000e+000  0.000000e+000  0.000000e+000  0.000000e+000  0.000000e+000  0.000000e+000  0.000000e+000  0.000000e+000  0.000000e+000  0.000000e+000  0.000000e+000  0.000000e+000  0.000000e+000  0.000000e+000  0.000000e+000  0.000000e+000  0.000000e+000  0.000000e+000  0.000000e+000  0.000000e+000  0.000000e+000  0.000000e+000  0.000000e+000  0.000000e+000  0.000000e+000  0.000000e+000  0.000000e+000  0.000000e+000  0.000000e+000  0.000000e+000  0.000000e+000  0.000000e+000  0.000000e+000  0.000000e+000  