<?xml version="1.0"?>
<VTKFile type="UnstructuredGrid"  version="0.1"  >
<UnstructuredGrid>
<Piece  NumberOfPoints="8321" NumberOfCells="16384">
<Points>
<DataArray  type="Float32"  NumberOfComponents="3"  format="ascii">-1 0 0  -0.999874 -0.015871 0  -0.99948 -0.0322413 0  -0.998793 -0.049121 0  -0.997785 -0.066519 0  -0.996428 -0.0844431 0  -0.994692 -0.102899 0  -0.992543 -0.121891 0  -0.989949 -0.141421 0  -0.986875 -0.161489 0  -0.983282 -0.182089 0  -0.979134 -0.203216 0  -0.974391 -0.22486 0  -0.969015 -0.247004 0  -0.962964 -0.26963 0  -0.9562 -0.292714 0  -0.948683 -0.316228 0  -0.940376 -0.340136 0  -0.931243 -0.364399 0  -0.92125 -0.388972 0  -0.910366 -0.413803 0  -0.898568 -0.438835 0  -0.885832 -0.464007 0  -0.872143 -0.489251 0  -0.857493 -0.514496 0  -0.841879 -0.539666 0  -0.825307 -0.564684 0  -0.807791 -0.589469 0  -0.789352 -0.613941 0  -0.770022 -0.638018 0  -0.749838 -0.661622 0  -0.728848 -0.684675 0  -0.707107 -0.707107 0  -0.684675 -0.728848 0  -0.661622 -0.749838 0  -0.638018 -0.770022 0  -0.613941 -0.789352 0  -0.589469 -0.807791 0  -0.564684 -0.825307 0  -0.539666 -0.841879 0  -0.514496 -0.857493 0  -0.489251 -0.872143 0  -0.464007 -0.885832 0  -0.438835 -0.898568 0  -0.413803 -0.910366 0  -0.388972 -0.92125 0  -0.364399 -0.931243 0  -0.340136 -0.940376 0  -0.316228 -0.948683 0  -0.292714 -0.9562 0  -0.26963 -0.962964 0  -0.247004 -0.969015 0  -0.22486 -0.974391 0  -0.203216 -0.979134 0  -0.182089 -0.983282 0  -0.161489 -0.986875 0  -0.141421 -0.989949 0  -0.121891 -0.992543 0  -0.102899 -0.994692 0  -0.0844431 -0.996428 0  -0.066519 -0.997785 0  -0.049121 -0.998793 0  -0.0322413 -0.99948 0  -0.015871 -0.999874 0  0 -1 0  -0.999874 0.015871 0  -0.96875 0 0  -0.96862 -0.015879 0  -0.968212 -0.0322737 0  -0.9675 -0.0491949 0  -0.966454 -0.066652 0  -0.965044 -0.084653 0  -0.963237 -0.103204 0  -0.960998 -0.122309 0  -0.958291 -0.141969 0  -0.955078 -0.162183 0  -0.951319 -0.182946 0  -0.946974 -0.204249 0  -0.942 -0.22608 0  -0.936357 -0.248421 0  -0.93 -0.27125 0  -0.922889 -0.294539 0  -0.914981 -0.318254 0  -0.906239 -0.342357 0  -0.896624 -0.366801 0  -0.886103 -0.391534 0  -0.874646 -0.416498 0  -0.86223 -0.44163 0  -0.848834 -0.466859 0  -0.834448 -0.49211 0  -0.819067 -0.517306 0  -0.802696 -0.542362 0  -0.785346 -0.567194 0  -0.767039 -0.591716 0  -0.747807 -0.615841 0  -0.727691 -0.639486 0  -0.706739 -0.662568 0  -0.68501 -0.68501 0  -0.662568 -0.706739 0  -0.639486 -0.727691 0  -0.615841 -0.747807 0  -0.591716 -0.767039 0  -0.567194 -0.785346 0  -0.542362 -0.802696 0  -0.517306 -0.819067 0  -0.49211 -0.834448 0  -0.466859 -0.848834 0  -0.44163 -0.86223 0  -0.416498 -0.874646 0  -0.391534 -0.886103 0  -0.366801 -0.896624 0  -0.342357 -0.906239 0  -0.318254 -0.914981 0  -0.294539 -0.922889 0  -0.27125 -0.93 0  -0.248421 -0.936357 0  -0.22608 -0.942 0  -0.204249 -0.946974 0  -0.182946 -0.951319 0  -0.162183 -0.955078 0  -0.141969 -0.958291 0  -0.122309 -0.960998 0  -0.103204 -0.963237 0  -0.084653 -0.965044 0  -0.066652 -0.966454 0  -0.0491949 -0.9675 0  -0.0322737 -0.968212 0  -0.015879 -0.96862 0  0 -0.96875 0  0.015871 -0.999874 0  -0.99948 0.0322413 0  -0.96862 0.015879 0  -0.9375 0 0  -0.937365 -0.0158875 0  -0.936943 -0.0323084 0  -0.936204 -0.0492739 0  -0.935118 -0.0667941 0  -0.93365 -0.0848773 0  -0.931766 -0.10353 0  -0.929429 -0.122755 0  -0.926598 -0.142554 0  -0.923235 -0.162924 0  -0.919294 -0.183859 0  -0.914734 -0.205348 0  -0.909509 -0.227377 0  -0.903573 -0.249924 0  -0.896882 -0.272964 0  -0.889391 -0.296464 0  -0.881056 -0.320384 0  -0.871838 -0.34468 0  -0.861698 -0.369299 0  -0.850604 -0.394182 0  -0.838525 -0.419263 0  -0.825442 -0.444469 0  -0.811337 -0.469722 0  -0.796205 -0.494938 0  -0.780047 -0.520031 0  -0.762875 -0.544911 0  -0.74471 -0.569484 0  -0.725585 -0.59366 0  -0.705541 -0.617348 0  -0.684629 -0.64046 0  -0.662913 -0.662913 0  -0.64046 -0.684629 0  -0.617348 -0.705541 0  -0.59366 -0.725585 0  -0.569484 -0.74471 0  -0.544911 -0.762875 0  -0.520031 -0.780047 0  -0.494938 -0.796205 0  -0.469722 -0.811337 0  -0.444469 -0.825442 0  -0.419263 -0.838525 0  -0.394182 -0.850604 0  -0.369299 -0.861698 0  -0.34468 -0.871838 0  -0.320384 -0.881056 0  -0.296464 -0.889391 0  -0.272964 -0.896882 0  -0.249924 -0.903573 0  -0.227377 -0.909509 0  -0.205348 -0.914734 0  -0.183859 -0.919294 0  -0.162924 -0.923235 0  -0.142554 -0.926598 0  -0.122755 -0.929429 0  -0.10353 -0.931766 0  -0.0848773 -0.93365 0  -0.0667941 -0.935118 0  -0.0492739 -0.936204 0  -0.0323084 -0.936943 0  -0.0158875 -0.937365 0  0 -0.9375 0  0.015879 -0.96862 0  0.0322413 -0.99948 0  -0.998793 0.049121 0  -0.968212 0.0322737 0  -0.937365 0.0158875 0  -0.90625 0 0  -0.906111 -0.0158967 0  -0.905673 -0.0323454 0  -0.904905 -0.0493584 0  -0.903774 -0.0669462 0  -0.902244 -0.0851174 0  -0.900277 -0.103878 0  -0.897832 -0.123232 0  -0.894868 -0.143179 0  -0.89134 -0.163715 0  -0.887201 -0.184834 0  -0.882405 -0.20652 0  -0.876903 -0.228757 0  -0.870647 -0.25152 0  -0.863589 -0.274778 0  -0.855681 -0.298494 0  -0.84688 -0.322621 0  -0.837141 -0.347107 0  -0.826429 -0.371893 0  -0.81471 -0.39691 0  -0.801957 -0.422083 0  -0.788153 -0.44733 0  -0.773287 -0.472564 0  -0.757358 -0.497692 0  -0.740377 -0.522619 0  -0.722365 -0.547246 0  -0.703353 -0.571475 0  -0.683386 -0.595208 0  -0.662519 -0.618351 0  -0.640816 -0.640816 0  -0.618351 -0.662519 0  -0.595208 -0.683386 0  -0.571475 -0.703353 0  -0.547246 -0.722365 0  -0.522619 -0.740377 0  -0.497692 -0.757358 0  -0.472564 -0.773287 0  -0.44733 -0.788153 0  -0.422083 -0.801957 0  -0.39691 -0.81471 0  -0.371893 -0.826429 0  -0.347107 -0.837141 0  -0.322621 -0.84688 0  -0.298494 -0.855681 0  -0.274778 -0.863589 0  -0.25152 -0.870647 0  -0.228757 -0.876903 0  -0.20652 -0.882405 0  -0.184834 -0.887201 0  -0.163715 -0.89134 0  -0.143179 -0.894868 0  -0.123232 -0.897832 0  -0.103878 -0.900277 0  -0.0851174 -0.902244 0  -0.0669462 -0.903774 0  -0.0493584 -0.904905 0  -0.0323454 -0.905673 0  -0.0158967 -0.906111 0  0 -0.90625 0  0.0158875 -0.937365 0  0.0322737 -0.968212 0  0.049121 -0.998793 0  -0.997785 0.066519 0  -0.9675 0.0491949 0  -0.936943 0.0323084 0  -0.906111 0.0158967 0  -0.875 0 0  -0.874855 -0.0159065 0  -0.8744 -0.0323852 0  -0.873602 -0.0494491 0  -0.872423 -0.0671094 0  -0.870825 -0.085375 0  -0.868767 -0.104252 0  -0.866206 -0.123744 0  -0.863095 -0.143849 0  -0.859386 -0.164563 0  -0.855029 -0.185876 0  -0.849974 -0.207771 0  -0.844168 -0.230228 0  -0.83756 -0.253216 0  -0.830098 -0.276699 0  -0.821732 -0.300634 0  -0.812417 -0.324967 0  -0.802109 -0.349637 0  -0.790771 -0.374576 0  -0.778371 -0.399704 0  -0.764888 -0.424938 0  -0.750306 -0.450184 0  -0.734624 -0.475345 0  -0.717848 -0.500319 0  -0.7 -0.525 0  -0.681111 -0.549283 0  -0.661228 -0.573064 0  -0.640407 -0.596241 0  -0.618718 -0.618718 0  -0.596241 -0.640407 0  -0.573064 -0.661228 0  -0.549283 -0.681111 0  -0.525 -0.7 0  -0.500319 -0.717848 0  -0.475345 -0.734624 0  -0.450184 -0.750306 0  -0.424938 -0.764888 0  -0.399704 -0.778371 0  -0.374576 -0.790771 0  -0.349637 -0.802109 0  -0.324967 -0.812417 0  -0.300634 -0.821732 0  -0.276699 -0.830098 0  -0.253216 -0.83756 0  -0.230228 -0.844168 0  -0.207771 -0.849974 0  -0.185876 -0.855029 0  -0.164563 -0.859386 0  -0.143849 -0.863095 0  -0.123744 -0.866206 0  -0.104252 -0.868767 0  -0.085375 -0.870825 0  -0.0671094 -0.872423 0  -0.0494491 -0.873602 0  -0.0323852 -0.8744 0  -0.0159065 -0.874855 0  0 -0.875 0  0.0158967 -0.906111 0  0.0323084 -0.936943 0  0.0491949 -0.9675 0  0.066519 -0.997785 0  -0.996428 0.0844431 0  -0.966454 0.066652 0  -0.936204 0.0492739 0  -0.905673 0.0323454 0  -0.874855 0.0159065 0  -0.84375 0 0  -0.8436 -0.015917 0  -0.843127 -0.0324279 0  -0.842294 -0.0495467 0  -0.841063 -0.067285 0  -0.839391 -0.0856522 0  -0.837234 -0.104654 0  -0.834545 -0.124294 0  -0.831272 -0.144569 0  -0.827365 -0.165473 0  -0.822768 -0.186993 0  -0.817427 -0.209109 0  -0.811286 -0.231796 0  -0.804288 -0.255018 0  -0.79638 -0.278733 0  -0.78751 -0.302889 0  -0.77763 -0.327423 0  -0.766696 -0.352266 0  -0.754673 -0.377336 0  -0.741533 -0.402546 0  -0.727257 -0.427798 0  -0.711839 -0.452989 0  -0.695285 -0.478009 0  -0.677614 -0.502746 0  -0.658858 -0.527086 0  -0.639065 -0.550918 0  -0.618295 -0.574131 0  -0.596621 -0.596621 0  -0.574131 -0.618295 0  -0.550918 -0.639065 0  -0.527086 -0.658858 0  -0.502746 -0.677614 0  -0.478009 -0.695285 0  -0.452989 -0.711839 0  -0.427798 -0.727257 0  -0.402546 -0.741533 0  -0.377336 -0.754673 0  -0.352266 -0.766696 0  -0.327423 -0.77763 0  -0.302889 -0.78751 0  -0.278733 -0.79638 0  -0.255018 -0.804288 0  -0.231796 -0.811286 0  -0.209109 -0.817427 0  -0.186993 -0.822768 0  -0.165473 -0.827365 0  -0.144569 -0.831272 0  -0.124294 -0.834545 0  -0.104654 -0.837234 0  -0.0856522 -0.839391 0  -0.067285 -0.841063 0  -0.0495467 -0.842294 0  -0.0324279 -0.843127 0  -0.015917 -0.8436 0  0 -0.84375 0  0.0159065 -0.874855 0  0.0323454 -0.905673 0  0.0492739 -0.936204 0  0.066652 -0.966454 0  0.0844431 -0.996428 0  -0.994692 0.102899 0  -0.965044 0.084653 0  -0.935118 0.0667941 0  -0.904905 0.0493584 0  -0.8744 0.0323852 0  -0.8436 0.015917 0  -0.8125 0 0  -0.812344 -0.0159283 0  -0.811851 -0.032474 0  -0.810981 -0.0496519 0  -0.809693 -0.0674745 0  -0.807941 -0.0859512 0  -0.805675 -0.105088 0  -0.802845 -0.124887 0  -0.799394 -0.145344 0  -0.795267 -0.166451 0  -0.790405 -0.188192 0  -0.784747 -0.210542 0  -0.778234 -0.23347 0  -0.770805 -0.256935 0  -0.762404 -0.280886 0  -0.752976 -0.30526 0  -0.742472 -0.329988 0  -0.73085 -0.354984 0  -0.718078 -0.380159 0  -0.704131 -0.405409 0  -0.688999 -0.430624 0  -0.672684 -0.455689 0  -0.655204 -0.480483 0  -0.636592 -0.504883 0  -0.616896 -0.528768 0  -0.596181 -0.552019 0  -0.574524 -0.574524 0  -0.552019 -0.596181 0  -0.528768 -0.616896 0  -0.504883 -0.636592 0  -0.480483 -0.655204 0  -0.455689 -0.672684 0  -0.430624 -0.688999 0  -0.405409 -0.704131 0  -0.380159 -0.718078 0  -0.354984 -0.73085 0  -0.329988 -0.742472 0  -0.30526 -0.752976 0  -0.280886 -0.7
[...]
<PointData  Vectors="u"> 
<DataArray  type="Float32"  Name="u"  NumberOfComponents="3" format="ascii">0.000000e+000 -1.491755e-002 0.000000e+000  2.367579e-004 -1.491575e-002 0.000000e+000  4.809722e-004 -1.491014e-002 0.000000e+000  7.328037e-004 -1.490034e-002 0.000000e+000  9.923987e-004 -1.488598e-002 0.000000e+000  1.259885e-003 -1.486664e-002 0.000000e+000  1.535368e-003 -1.484189e-002 0.000000e+000  1.818926e-003 -1.481125e-002 0.000000e+000  2.110609e-003 -1.477426e-002 0.000000e+000  2.410429e-003 -1.473040e-002 0.000000e+000  2.718359e-003 -1.467914e-002 0.000000e+000  3.034324e-003 -1.461993e-002 0.000000e+000  3.358201e-003 -1.455220e-002 0.000000e+000  3.689806e-003 -1.447539e-002 0.000000e+000  4.028894e-003 -1.438891e-002 0.000000e+000  4.375155e-003 -1.429217e-002 0.000000e+000  4.728201e-003 -1.418460e-002 0.000000e+000  5.087571e-003 -1.406564e-002 0.000000e+000  5.452722e-003 -1.393473e-002 0.000000e+000  5.823030e-003 -1.379139e-002 0.000000e+000  6.197786e-003 -1.363513e-002 0.000000e+000  6.576197e-003 -1.346555e-002 0.000000e+000  6.957393e-003 -1.328230e-002 0.000000e+000  7.340425e-003 -1.308511e-002 0.000000e+000  7.724276e-003 -1.287379e-002 0.000000e+000  8.107868e-003 -1.264827e-002 0.000000e+000  8.490073e-003 -1.240857e-002 0.000000e+000  8.869728e-003 -1.215481e-002 0.000000e+000  9.245646e-003 -1.188726e-002 0.000000e+000  9.616636e-003 -1.160629e-002 0.000000e+000  9.981518e-003 -1.131239e-002 0.000000e+000  1.033914e-002 -1.100618e-002 0.000000e+000  1.068840e-002 -1.068840e-002 0.000000e+000  1.102825e-002 -1.035987e-002 0.000000e+000  1.135773e-002 -1.002153e-002 0.000000e+000  1.167598e-002 -9.674382e-003 0.000000e+000  1.198222e-002 -9.319502e-003 0.000000e+000  1.227579e-002 -8.958011e-003 0.000000e+000  1.255617e-002 -8.591065e-003 0.000000e+000  1.282294e-002 -8.219832e-003 0.000000e+000  1.307580e-002 -7.845477e-003 0.000000e+000  1.331457e-002 -7.469149e-003 0.000000e+000  1.353920e-002 -7.091961e-003 0.000000e+000  1.374973e-002 -6.714983e-003 0.000000e+000  1.394630e-002 -6.339227e-003 0.000000e+000  1.412915e-002 -5.965639e-003 0.000000e+000  1.429858e-002 -5.595095e-003 0.000000e+000  1.445497e-002 -5.228393e-003 0.000000e+000  1.459876e-002 -4.866252e-003 0.000000e+000  1.473042e-002 -4.509311e-003 0.000000e+000  1.485046e-002 -4.158129e-003 0.000000e+000  1.495943e-002 -3.813188e-003 0.000000e+000  1.505788e-002 -3.474895e-003 0.000000e+000  1.514637e-002 -3.143585e-003 0.000000e+000  1.522546e-002 -2.819530e-003 0.000000e+000  1.529573e-002 -2.502937e-003 0.000000e+000  1.535772e-002 -2.193959e-003 0.000000e+000  1.541197e-002 -1.892698e-003 0.000000e+000  1.545900e-002 -1.599207e-003 0.000000e+000  1.549933e-002 -1.313502e-003 0.000000e+000  1.553343e-002 -1.035562e-003 0.000000e+000  1.556176e-002 -7.653324e-004 0.000000e+000  1.558476e-002 -5.027343e-004 0.000000e+000  1.560285e-002 -2.476643e-004 0.000000e+000  1.561642e-002 0.000000e+000 0.000000e+000  -2.367579e-004 -1.491575e-002 0.000000e+000  0.000000e+000 -1.537603e-002 0.000000e+000  2.520338e-004 -1.537406e-002 0.000000e+000  5.122630e-004 -1.536789e-002 0.000000e+000  7.808698e-004 -1.535711e-002 0.000000e+000  1.058019e-003 -1.534127e-002 0.000000e+000  1.343852e-003 -1.531992e-002 0.000000e+000  1.638487e-003 -1.529254e-002 0.000000e+000  1.942007e-003 -1.525862e-002 0.000000e+000  2.254459e-003 -1.521760e-002 0.000000e+000  2.575851e-003 -1.516890e-002 0.000000e+000  2.906135e-003 -1.511190e-002 0.000000e+000  3.245215e-003 -1.504599e-002 0.000000e+000  3.592926e-003 -1.497053e-002 0.000000e+000  3.949039e-003 -1.488484e-002 0.000000e+000  4.313247e-003 -1.478828e-002 0.000000e+000  4.685162e-003 -1.468018e-002 0.000000e+000  5.064309e-003 -1.455989e-002 0.000000e+000  5.450121e-003 -1.442679e-002 0.000000e+000  5.841934e-003 -1.428028e-002 0.000000e+000  6.238988e-003 -1.411982e-002 0.000000e+000  6.640427e-003 -1.394490e-002 0.000000e+000  7.045296e-003 -1.375510e-002 0.000000e+000  7.452551e-003 -1.355009e-002 0.000000e+000  7.861064e-003 -1.332963e-002 0.000000e+000  8.269633e-003 -1.309359e-002 0.000000e+000  8.676993e-003 -1.284195e-002 0.000000e+000  9.081832e-003 -1.257484e-002 0.000000e+000  9.482812e-003 -1.229253e-002 0.000000e+000  9.878581e-003 -1.199542e-002 0.000000e+000  1.026780e-002 -1.168405e-002 0.000000e+000  1.064916e-002 -1.135910e-002 0.000000e+000  1.102140e-002 -1.102140e-002 0.000000e+000  1.138335e-002 -1.067189e-002 0.000000e+000  1.173390e-002 -1.031161e-002 0.000000e+000  1.207208e-002 -9.941716e-003 0.000000e+000  1.239703e-002 -9.563424e-003 0.000000e+000  1.270801e-002 -9.178009e-003 0.000000e+000  1.300444e-002 -8.786782e-003 0.000000e+000  1.328586e-002 -8.391067e-003 0.000000e+000  1.355196e-002 -7.992182e-003 0.000000e+000  1.380258e-002 -7.591418e-003 0.000000e+000  1.403767e-002 -7.190027e-003 0.000000e+000  1.425732e-002 -6.789201e-003 0.000000e+000  1.446173e-002 -6.390065e-003 0.000000e+000  1.465118e-002 -5.993664e-003 0.000000e+000  1.482606e-002 -5.600954e-003 0.000000e+000  1.498681e-002 -5.212805e-003 0.000000e+000  1.513397e-002 -4.829990e-003 0.000000e+000  1.526808e-002 -4.453189e-003 0.000000e+000  1.538974e-002 -4.082991e-003 0.000000e+000  1.549957e-002 -3.719897e-003 0.000000e+000  1.559821e-002 -3.364319e-003 0.000000e+000  1.568629e-002 -3.016595e-003 0.000000e+000  1.576447e-002 -2.676985e-003 0.000000e+000  1.583335e-002 -2.345682e-003 0.000000e+000  1.589357e-002 -2.022818e-003 0.000000e+000  1.594571e-002 -1.708469e-003 0.000000e+000  1.599036e-002 -1.402663e-003 0.000000e+000  1.602807e-002 -1.105384e-003 0.000000e+000  1.605936e-002 -8.165777e-004 0.000000e+000  1.608474e-002 -5.361579e-004 0.000000e+000  1.610467e-002 -2.640109e-004 0.000000e+000  1.611960e-002 0.000000e+000 0.000000e+000  1.562607e-002 2.480329e-004 0.000000e+000  -4.809722e-004 -1.491014e-002 0.000000e+000  -2.520338e-004 -1.537406e-002 0.000000e+000  0.000000e+000 -1.586357e-002 0.000000e+000  2.688373e-004 -1.586140e-002 0.000000e+000  5.467103e-004 -1.585460e-002 0.000000e+000  8.338257e-004 -1.584269e-002 0.000000e+000  1.130370e-003 -1.582517e-002 0.000000e+000  1.436501e-003 -1.580151e-002 0.000000e+000  1.752349e-003 -1.577114e-002 0.000000e+000  2.078002e-003 -1.573344e-002 0.000000e+000  2.413506e-003 -1.568779e-002 0.000000e+000  2.758854e-003 -1.563351e-002 0.000000e+000  3.113981e-003 -1.556990e-002 0.000000e+000  3.478751e-003 -1.549625e-002 0.000000e+000  3.852956e-003 -1.541183e-002 0.000000e+000  4.236303e-003 -1.531587e-002 0.000000e+000  4.628407e-003 -1.520762e-002 0.000000e+000  5.028784e-003 -1.508635e-002 0.000000e+000  5.436844e-003 -1.495132e-002 0.000000e+000  5.851889e-003 -1.480184e-002 0.000000e+000  6.273106e-003 -1.463725e-002 0.000000e+000  6.699567e-003 -1.445696e-002 0.000000e+000  7.130230e-003 -1.426046e-002 0.000000e+000  7.563945e-003 -1.404733e-002 0.000000e+000  7.999458e-003 -1.381725e-002 0.000000e+000  8.435426e-003 -1.357003e-002 0.000000e+000  8.870427e-003 -1.330564e-002 0.000000e+000  9.302981e-003 -1.302417e-002 0.000000e+000  9.731569e-003 -1.272590e-002 0.000000e+000  1.015465e-002 -1.241124e-002 0.000000e+000  1.057071e-002 -1.208081e-002 0.000000e+000  1.097824e-002 -1.173536e-002 0.000000e+000  1.137581e-002 -1.137581e-002 0.000000e+000  1.176207e-002 -1.100323e-002 0.000000e+000  1.213579e-002 -1.061881e-002 0.000000e+000  1.249584e-002 -1.022387e-002 0.000000e+000  1.284125e-002 -9.819780e-003 0.000000e+000  1.317121e-002 -9.408009e-003 0.000000e+000  1.348507e-002 -8.990045e-003 0.000000e+000  1.378233e-002 -8.567396e-003 0.000000e+000  1.406269e-002 -8.141555e-003 0.000000e+000  1.432597e-002 -7.713983e-003 0.000000e+000  1.457217e-002 -7.286084e-003 0.000000e+000  1.480142e-002 -6.859195e-003 0.000000e+000  1.501399e-002 -6.434565e-003 0.000000e+000  1.521023e-002 -6.013347e-003 0.000000e+000  1.539062e-002 -5.596590e-003 0.000000e+000  1.555571e-002 -5.185236e-003 0.000000e+000  1.570610e-002 -4.780117e-003 0.000000e+000  1.584245e-002 -4.381954e-003 0.000000e+000  1.596545e-002 -3.991363e-003 0.000000e+000  1.607583e-002 -3.608860e-003 0.000000e+000  1.617430e-002 -3.234860e-003 0.000000e+000  1.626159e-002 -2.869693e-003 0.000000e+000  1.633843e-002 -2.513605e-003 0.000000e+000  1.640552e-002 -2.166766e-003 0.000000e+000  1.646353e-002 -1.829282e-003 0.000000e+000  1.651315e-002 -1.501195e-003 0.000000e+000  1.655499e-002 -1.182499e-003 0.000000e+000  1.658967e-002 -8.731403e-004 0.000000e+000  1.661775e-002 -5.730257e-004 0.000000e+000  1.663977e-002 -2.820301e-004 0.000000e+000  1.665626e-002 0.000000e+000 0.000000e+000  1.613022e-002 2.644298e-004 0.000000e+000  1.563191e-002 5.042553e-004 0.000000e+000  -7.328037e-004 -1.490034e-002 0.000000e+000  -5.122630e-004 -1.536789e-002 0.000000e+000  -2.688373e-004 -1.586140e-002 0.000000e+000  0.000000e+000 -1.638302e-002 0.000000e+000  2.873794e-004 -1.638063e-002 0.000000e+000  5.847535e-004 -1.637310e-002 0.000000e+000  8.923582e-004 -1.635990e-002 0.000000e+000  1.210404e-003 -1.634046e-002 0.000000e+000  1.539070e-003 -1.631415e-002 0.000000e+000  1.878498e-003 -1.628032e-002 0.000000e+000  2.228781e-003 -1.623826e-002 0.000000e+000  2.589961e-003 -1.618726e-002 0.000000e+000  2.962013e-003 -1.612652e-002 0.000000e+000  3.344843e-003 -1.605525e-002 0.000000e+000  3.738271e-003 -1.597261e-002 0.000000e+000  4.142026e-003 -1.587777e-002 0.000000e+000  4.555735e-003 -1.576985e-002 0.000000e+000  4.978912e-003 -1.564801e-002 0.000000e+000  5.410951e-003 -1.551139e-002 0.000000e+000  5.851120e-003 -1.535919e-002 0.000000e+000  6.298551e-003 -1.519062e-002 0.000000e+000  6.752245e-003 -1.500499e-002 0.000000e+000  7.211063e-003 -1.480166e-002 0.000000e+000  7.673739e-003 -1.458010e-002 0.000000e+000  8.138879e-003 -1.433993e-002 0.000000e+000  8.604979e-003 -1.408087e-002 0.000000e+000  9.070437e-003 -1.380284e-002 0.000000e+000  9.533577e-003 -1.350590e-002 0.000000e+000  9.992669e-003 -1.319032e-002 0.000000e+000  1.044596e-002 -1.285657e-002 0.000000e+000  1.089170e-002 -1.250528e-002 0.000000e+000  1.132818e-002 -1.213733e-002 0.000000e+000  1.175375e-002 -1.175375e-002 0.000000e+000  1.216687e-002 -1.135574e-002 0.000000e+000  1.256611e-002 -1.094468e-002 0.000000e+000  1.295022e-002 -1.052205e-002 0.000000e+000  1.331808e-002 -1.008946e-002 0.000000e+000  1.366879e-002 -9.648559e-003 0.000000e+000  1.400162e-002 -9.201067e-003 0.000000e+000  1.431605e-002 -8.748700e-003 0.000000e+000  1.461175e-002 -8.293158e-003 0.000000e+000  1.488858e-002 -7.836096e-003 0.000000e+000  1.514657e-002 -7.379098e-003 0.000000e+000  1.538592e-002 -6.923662e-003 0.000000e+000  1.560696e-002 -6.471178e-003 0.000000e+000  1.581016e-002 -6.022919e-003 0.000000e+000  1.599610e-002 -5.580034e-003 0.000000e+000  1.616542e-002 -5.143543e-003 0.000000e+000  1.631886e-002 -4.714337e-003 0.000000e+000  1.645718e-002 -4.293177e-003 0.000000e+000  1.658119e-002 -3.880705e-003 0.000000e+000  1.669172e-002 -3.477442e-003 0.000000e+000  1.678960e-002 -3.083804e-003 0.000000e+000  1.687564e-002 -2.700103e-003 0.000000e+000  1.695068e-002 -2.326563e-003 0.000000e+000  1.701548e-002 -1.963324e-003 0.000000e+000  1.707081e-002 -1.610454e-003 0.000000e+000  1.711742e-002 -1.267957e-003 0.000000e+000  1.715598e-002 -9.357809e-004 0.000000e+000  1.718717e-002 -6.138275e-004 0.000000e+000  1.721160e-002 -3.019579e-004 0.000000e+000  1.722986e-002 0.000000e+000 0.000000e+000  1.666798e-002 2.825081e-004 0.000000e+000  1.613665e-002 5.378882e-004 0.000000e+000  1.563355e-002 7.688630e-004 0.000000e+000  -9.923987e-004 -1.488598e-002 0.000000e+000  -7.808698e-004 -1.535711e-002 0.000000e+000  -5.467103e-004 -1.585460e-002 0.000000e+000  -2.873794e-004 -1.638063e-002 0.000000e+000  0.000000e+000 -1.693762e-002 0.000000e+000  3.079084e-004 -1.693496e-002 0.000000e+000  6.269112e-004 -1.692660e-002 0.000000e+000  9.572786e-004 -1.691192e-002 0.000000e+000  1.299250e-003 -1.689026e-002 0.000000e+000  1.653028e-003 -1.686089e-002 0.000000e+000  2.018767e-003 -1.682306e-002 0.000000e+000  2.396565e-003 -1.677595e-002 0.000000e+000  2.786454e-003 -1.671872e-002 0.000000e+000  3.188387e-003 -1.665047e-002 0.000000e+000  3.602230e-003 -1.657026e-002 0.000000e+000  4.027743e-003 -1.647713e-002 0.000000e+000  4.464576e-003 -1.637011e-002 0.000000e+000  4.912249e-003 -1.624821e-002 0.000000e+000  5.370148e-003 -1.611044e-002 0.000000e+000  5.837510e-003 -1.595586e-002 0.000000e+000  6.313418e-003 -1.578355e-002 0.000000e+000  6.796796e-003 -1.559265e-002 0.000000e+000  7.286403e-003 -1.538241e-002 0.000000e+000  7.780845e-003 -1.515217e-002 0.000000e+000  8.278571e-003 -1.490143e-002 0.000000e+000  8.777895e-003 -1.462983e-002 0.000000e+000  9.277008e-003 -1.433719e-002 0.000000e+000  9.774004e-003 -1.402357e-002 0.000000e+000  1.026691e-002 -1.368921e-002 0.000000e+000  1.075371e-002 -1.333460e-002 0.000000e+000  1.123240e-002 -1.296047e-002 0.000000e+000  1.170101e-002 -1.256775e-002 0.000000e+000  1.215764e-002 -1.215764e-002 0.000000e+000  1.260052e-002 -1.173152e-002 0.000000e+000  1.302801e-002 -1.129094e-002 0.000000e+000  1.343865e-002 -1.083762e-002 0.000000e+000  1.383122e-002 -1.037341e-002 0.000000e+000  1.420466e-002 -9.900219e-003 0.000000e+000  1.455820e-002 -9.420009e-003 0.000000e+000  1.489125e-002 -8.934752e-003 0.000000e+000  1.520350e-002 -8.446389e-003 0.000000e+000  1.549482e-002 -7.956801e-003 0.000000e+000  1.576532e-002 -7.467781e-003 0.000000e+000  1.601525e-002 -6.981007e-003 0.000000e+000  1.624507e-002 -6.498030e-003 0.000000e+000  1.645536e-002 -6.020255e-003 0.000000e+000  1.664682e-002 -5.548940e-003 0.000000e+000  1.682023e-002 -5.085185e-003 0.000000e+000  1.697645e-002 -4.629942e-003 0.000000e+000  1.711640e-002 -4.184008e-003 0.000000e+000  1.724100e-002 -3.748044e-003 0.000000e+000  1.735122e-002 -3.322574e-003 0.000000e+000  1.744799e-002 -2.907999e-003 0.000000e+000  1.753226e-002 -2.504609e-003 0.000000e+000  1.760494e-002 -2.112593e-003 0.000000e+000  1.766692e-002 -1.732051e-003 0.000000e+000  1.771903e-002 -1.363002e-003 0.000000e+000  1.776209e-002 -1.005401e-003 0.000000e+000  1.779685e-002 -6.591427e-004 0.000000e+000  1.782405e-002 -3.240736e-004 0.000000e+000  1.784434e-002 0.000000e+000 0.000000e+000  1.724284e-002 3.025059e-004 0.000000e+000  1.667508e-002 5.750027e-004 0.000000e+000  1.613843e-002 8.205982e-004 0.000000e+000  1.563054e-002 1.042036e-003 0.000000e+000  -1.259885e-003 -1.486664e-002 0.000000e+000  -1.058019e-003 -1.534127e-002 0.000000e+000  -8.338257e-004 -1.584269e-002 0.000000e+000  -5.847535e-004 -1.637310e-002 0.000000e+000  -3.079084e-004 -1.693496e-002 0.000000e+000  0.000000e+000 -1.753104e-002 0.000000e+000  3.307187e-004 -1.752809e-002 0.000000e+000  6.737990e-004 -1.751877e-002 0.000000e+000  1.029552e-003 -1.750238e-002 0.000000e+000  1.398251e-003 -1.747814e-002 0.000000e+000  1.780125e-003 -1.744522e-002 0.000000e+000  2.175342e-003 -1.740274e-002 0.000000e+000  2.584004e-003 -1.734974e-002 0.000000e+000  3.006128e-003 -1.728523e-002 0.000000e+000  3.441636e-003 -1.720818e-002 0.000000e+000  3.890337e-003 -1.711748e-002 0.000000e+000  4.351916e-003 -1.701204e-002 0.000000e+000  4.825914e-003 -1.689070e-002 0.000000e+000  5.311716e-003 -1.675234e-002 0.000000e+000  5.808539e-003 -1.659582e-002 0.000000e+000  6.315417e-003 -1.642009e-002 0.000000e+000  6.831199e-003 -1.622410e-002 0.000000e+000  7.354538e-003 -1.600694e-002 0.000000e+000  7.883896e-003 -1.576779e-002 0.000000e+000  8.417551e-003 -1.550601e-002 0.000000e+000  8.953607e-003 -1.522113e-002 0.000000e+000  9.490018e-003 -1.491289e-002 0.000000e+000  1.002461e-002 -1.458125e-002 0.000000e+000  1.055512e-002 -1.422647e-002 0.000000e+000  1.107924e-002 -1.384905e-002 0.000000e+000  1.159464e-002 -1.344979e-002 0.000000e+000  1.209905e-002 -1.302975e-002 0.000000e+000  1.259026e-002 -1.259026e-002 0.000000e+000  1.306623e-002 -1.213293e-002 0.000000e+000  1.352506e-002 -1.165954e-002 0.000000e+000  1.396510e-002 -1.117208e-002 0.000000e+000  1.438491e-002 -1.067267e-002 0.000000e+000  1.478334e-002 -1.016355e-002 0.000000e+000  1.515951e-002 -9.646961e-003 0.000000e+000  1.551281e-002 -9.125184e-003 0.000000e+000  1.584292e-002 -8.600443e-003 0.000000e+000  1.614976e-002 -8.074881e-003 0.000000e+000  1.643350e-002 -7.550528e-003 0.000000e+000  1.669453e-002 -7.029275e-003 0.000000e+000  1.693340e-002 -6.512848e-003 0.000000e+000  1.715086e-002 -6.002800e-003 0.000000e+000  1.734774e-002 -5.500504e-003 0.000000e+000  1.752501e-002 -5.007144e-003 0.000000e+000  1.768367e-002 -4.523729e-003 0.000000e+000  1.782480e-002 -4.051090e-003 0.000000e+000  1.794949e-002 -3.589897e-003 0.000000e+000  1.805883e-002 -3.140666e-003 0.000000e+000  1.815391e-002 -2.703773e-003 0.000000e+000  1.823579e-002 -2.279473e-003 0.000000e+000  1.830549e-002 -1.867907e-003 0.000000e+000  1.836401e-002 -1.469121e-003 0.000000e+000  1.841229e-002 -1.083076e-003 0.000000e+000  1.845120e-002 -7.096617e-004 0.000000e+000  1.848159e-002 -3.487093e-004 0.000000e+000  1.850424e-002 0.000000e+000 0.000000e+000  1.785877e-002 3.247049e-004 0.000000e+000  1.725070e-002 6.160965e-004 0.000000e+000  1.667703e-002 8.777386e-004 0.000000e+000  1.613508e-002 1.112764e-003 0.000000e+000  1.562245e-002 1.323936e-003 0.000000e+000  -1.535368e-003 -1.484189e-002 0.000000e+000  -1.343852e-003 -1.531992e-002 0.000000e+000  -1.130370e-003 -1.582517e-002 0.000000e+000  -8.923582e-004 -1.635990e-002 0.000000e+000  -6.269112e-004 -1.692660e-002 0.000000e+000  -3.307187e-004 -1.752809e-002 0.000000e+000  0.000000e+000 -1.816753e-002 0.000000e+000  3.561613e-004 -1.816422e-002 0.000000e+000  7.261520e-004 -1.815380e-002 0.000000e+000  1.110332e-003 -1.813542e-002 0.000000e+000  1.509015e-003 -1.810818e-002 0.000000e+000  1.922459e-003 -1.807111e-002 0.000000e+000  2.350849e-003 -1.802318e-002 0.000000e+000  2.794286e-003 -1.796327e-002 0.000000e+000  3.252765e-003 -1.789021e-002 0.000000e+000  3.726164e-003 -1.780278e-002 0.000000e+000  4.214218e-003 -1.769972e-002 0.000000e+000  4.716505e-003 -1.757970e-002 0.000000e+000  5.232427e-003 -1.744142e-002 0.000000e+000  5.761189e-003 -1.728357e-002 0.000000e+000  6.301788e-003 -1.710485e-002 0.000000e+000  6.852995e-003 -1.690406e-002 0.000000e+000  7.413355e-003 -1.668005e-002 0.000000e+000  7.981177e-003 -1.643184e-002 0.000000e+000  8.554545e-003 -1.615859e-002 0.000000e+000  9.131329e-003 -1.585968e-002 0.000000e+000  9.709205e-003 -1.553473e-002 0.000000e+000  1.028569e-002 -1.518364e-002 0.000000e+000  1.085818e-002 -1.480661e-002 0.000000e+000  1.142401e-002 -1.440418e-002 0.000000e+000  1.198047e-002 -1.397721e-002 0.000000e+000  1.252491e-002 -1.352690e-002 0.000000e+000  1.305478e-002 -1.305478e-002 0.000000e+000  1.356769e-002 -1.256267e-002 0.000000e+000  1.406144e-002 -1.205266e-002 0.000000e+000  1.453413e-002 -1.152706e-002 0.000000e+000  1.498411e-002 -1.098834e-002 0.000000e+000  1.541007e-002 -1.043908e-002 0.000000e+000  1.581105e-002 -9.881907e-003 0.000000e+000  1.618640e-002 -9.319442e-003 0.000000e+000  1.653580e-002 -8.754248e-003 0.000000e+000  1.685925e-002 -8.188779e-003 0.000000e+000  1.715702e-002 -7.625340e-003 0.000000e+000  1.742961e-002 -7.066060e-003 0.000000e+000  1.767778e-002 -6.512865e-003 0.000000e+000  1.790240e-002 -5.967468e-003 0.000000e+000  1.810454e-002 -5.431362e-003 0.000000e+000  1.828532e-002 -4.905819e-003 0.000000e+000  1.844597e-002 -4.391899e-003 0.000000e+000  1.858774e-002 -3.890457e-003 0.000000e+000  1.871189e-002 -3.402162e-003 0.000000e+000  1.881969e-002 -2.927508e-003 0.000000e+000  1.891238e-002 -2.466832e-003 0.000000e+000  1.899116e-002 -2.020336e-003 0.000000e+000  1.905718e-002 -1.588098e-003 0.000000e+000  1.911155e-002 -1.170095e-003 0.000000e+000  1.915529e-002 -7.662118e-004 0.000000e+000  1.918940e-002 -3.762628e-004 0.000000e+000  1.921478e-002 0.000000e+000 0.000000e+000  1.852034e-002 3.494404e-004 0.000000e+000  1.786752e-002 6.617598e-004 0.000000e+000  1.725285e-002 9.410647e-004 0.000000e+000  1.667329e-002